272
Lattice="10.369 0.0 0.0 0.10126208049368692 18.130717222191024 0.0 -7.575353470244855 -3.5357461171233133 14.052320811741263" Properties=species:S:1:pos:R:3:force:R:3 energy=-594.912617 pbc="T T T"
Al      -0.23700000       3.83200000       3.16700000       0.03558500      -0.06099200       0.07536000
Al       2.37000000       8.38400000       3.37300000       0.01298600      -0.01840100       0.03036500
Al       2.37600000       2.25000000       3.21700000       0.01255400      -0.06420800       0.04091500
Al      -0.18000000       6.77900000       3.27300000      -0.01344200       0.01439000       0.03496100
Si       4.03700000       2.49100000       0.54700000      -0.00365600       0.03354500       0.03146400
Si       1.52500000       7.13800000       0.63500000       0.02067900       0.00656200       0.01392900
Si       1.58400000       0.81100000       0.65100000       0.01063000      -0.04566800      -0.00344900
Si      -0.86800000       5.49000000       0.59100000      -0.02509400      -0.05280500      -0.03389400
O       -1.30500000       2.62800000       2.15600000       0.04215000       0.01154100      -0.03263200
O        1.34300000       7.29000000       2.28200000      -0.00974800      -0.03776900      -0.07337300
O       -0.62300000       5.30800000       2.13200000      -0.00353900       0.05157600       0.02693500
O        1.93500000       0.62800000       2.19400000       0.00581400       0.07432100       0.04837900
O       -0.71300000       3.95000000      -0.06100000      -0.00722600      -0.01061400       0.00308100
O        1.70300000      -0.68200000      -0.02400000      -0.00488900       0.00127900      -0.00227900
O        0.15700000       1.39000000       0.27300000      -0.01349200       0.00981600      -0.00990000
O        2.93700000       6.43200000       0.27000000      -0.01440900      -0.00764900       0.00122400
O        0.24700000       6.44100000      -0.07200000       0.01549900       0.00371200      -0.00985600
O        2.74500000       1.71900000       0.01800000       0.00433400       0.01349800      -0.02829200
O       -1.22200000       8.03000000       2.34800000       0.03205300       0.01074100      -0.05083400
O        1.39800000       3.53700000       2.26900000      -0.00872900      -0.00069900       0.00381100
O        2.96900000       0.77100000       4.28800000      -0.00019900       0.02945500       0.01562300
O        0.19900000       5.28200000       4.31900000       0.00040600      -0.01776900      -0.03152300
O       -1.82200000       3.68700000       4.19100000       0.01041200      -0.04524400      -0.05763600
O        0.88400000       7.90600000       4.39000000      -0.03665300      -0.00885800      -0.00728400
O       -1.80300000       6.96700000       4.24400000       0.02070200       0.00874300      -0.01561600
O        0.72900000       2.47100000       4.12700000      -0.02225700       0.03209600      -0.02651700
H       -0.74700000      -0.53400000       1.54000000      -0.01893900      -0.00301600       0.03049100
H        1.79300000       4.00400000       1.55600000      -0.00053400       0.00980500      -0.00947300
H       -1.74700000       0.75400000       4.99400000      -0.00138500       0.00563200      -0.00022400
H        0.85700000       5.36800000       4.96500000       0.02008500      -0.00681500       0.02313800
H       -2.07400000       3.99400000       5.01200000      -0.00637700       0.02077600       0.04089000
H        0.66400000      -0.77100000       5.15000000      -0.00520900       0.00919400       0.02001900
H        0.30800000       1.89700000       4.76000000       0.00514700      -0.00063600       0.00055300
H       -2.03800000       6.55500000       5.05400000      -0.00163700      -0.00711000       0.01043300
Al      -3.52200000       2.22900000      10.38200000       0.02372100       0.03566300       0.01360600
Al      -0.79500000       6.83000000      10.34600000      -0.03770200       0.03965200       0.01458300
Al      -0.95300000       0.82300000      10.37900000       0.07417600      -0.06030300      -0.00348800
Al      -3.36500000       5.25700000      10.36000000      -0.01286900      -0.02447200      -0.07491400
Si       0.89100000       0.91400000       7.71400000       0.01265300      -0.00267800       0.01510600
Si      -1.54100000       5.43700000       7.66500000      -0.02115900      -0.00055800       0.03588000
Si      -1.61300000      -0.59900000       7.58100000      -0.02609800       0.02809600      -0.00322600
Si      -4.17700000       3.92400000       7.64900000      -0.01185600      -0.00922000       0.05143600
O       -4.56600000       1.04000000       9.32500000       0.00027500      -0.00343100       0.00296800
O       -1.81600000       5.61600000       9.31300000       0.00080200      -0.01249200      -0.03249000
O       -3.90500000       3.71200000       9.31800000      -0.00429100       0.08511500      -0.01637500
O       -1.42300000      -0.60900000       9.19100000      -0.00245800       0.02022900      -0.00356200
O       -4.20000000       2.43800000       7.03000000      -0.00325600      -0.00532100      -0.00744800
O       -1.50000000      -2.10400000       6.90500000       0.00132300       0.04915100      -0.01254000
O       -3.04200000       0.17500000       7.27300000       0.03934400      -0.02631000      -0.00530600
O       -0.26800000       4.51000000       7.34400000      -0.02759800      -0.00287600      -0.01156900
O       -2.97300000       4.83600000       7.09900000       0.02460700       0.00697800      -0.01767600
O       -0.37200000       0.30700000       6.94500000      -0.03964800      -0.01143200      -0.01424100
O       -4.39800000       6.45500000       9.25700000       0.03100500      -0.02658300       0.02134200
O       -1.89700000       2.05600000       9.38300000      -0.02759900       0.04459900      -0.00924700
O       -0.31200000      -0.75800000      11.24700000       0.00141100       0.06782800       0.00189000
O       -2.88500000       3.74200000      11.38700000      -0.00618900      -0.02857900      -0.00409300
O       -5.14300000       1.95700000      11.32100000       0.00851900      -0.00451100      -0.00063600
O       -2.38300000       6.52300000      11.34000000       0.03378600      -0.00795800      -0.04058500
O       -4.92200000       5.60700000      11.29600000      -0.00441800      -0.01965400       0.03051500
O       -2.52100000       0.94100000      11.27200000      -0.02242800      -0.00529100       0.02334600
H       -4.17100000      -2.10300000       8.57200000       0.00449000       0.02450400      -0.02929300
H       -1.48400000       2.78900000       8.87200000      -0.01537500      -0.02360200       0.01365900
H       -5.30700000      -0.86100000      12.29300000       0.00709300      -0.00127700       0.00692600
H       -2.38600000       3.73900000      12.23500000      -0.01525900      -0.00190900      -0.02389600
H       -5.49900000       2.48000000      12.02700000       0.00145800       0.00146800       0.00378200
H       -2.59600000      -1.78500000      11.90500000      -0.00767200      -0.01326000      -0.00185000
H       -2.82100000       0.38900000      11.96700000      -0.00434900      -0.00757200       0.01230100
H       -5.11700000       5.25700000      12.15900000      -0.00360300      -0.00028100       0.00007500
Al      -0.12100000      12.84800000       3.33700000      -0.00977200       0.07123400      -0.01720100
Al       2.54100000      17.36200000       3.35800000      -0.03951100      -0.02155300      -0.01110900
Al       2.43400000      11.37100000       3.37700000       0.08297800      -0.03212900       0.02328600
Al      -0.15500000      15.85300000       3.30400000       0.04547500       0.05201600       0.01264500
Si       4.24500000      11.48100000       0.68700000       0.02185800       0.03901700      -0.00133000
Si       1.62400000      15.94800000       0.68500000       0.03928600       0.04296800       0.01154400
Si       1.65600000       9.98200000       0.69800000       0.02660700       0.02545200       0.00532300
Si      -0.88600000      14.50300000       0.70900000      -0.02395800       0.03777000      -0.04992500
O       -1.19000000      11.71600000       2.27700000      -0.03627900      -0.01020600       0.01389000
O        1.43000000      16.21800000       2.29600000      -0.00537400      -0.02251600      -0.00706200
O       -0.66200000      14.36000000       2.26000000       0.01834100      -0.04230100       0.03699200
O        1.94000000       9.86800000       2.31300000      -0.00797900       0.02333600      -0.02734700
O       -0.94500000      13.05700000      -0.04700000       0.00409500       0.04382900      -0.01507300
O        1.59400000       8.59700000      -0.16500000       0.00373000      -0.00679600       0.01663000
O        0.33700000      10.78900000       0.39500000      -0.01405400       0.01395600      -0.01251600
O        3.00500000      15.23300000       0.25100000       0.01021200      -0.01699600       0.00789700
O        0.33300000      15.35500000      -0.04100000      -0.02545600      -0.02692300       0.00014700
O        2.92900000      10.89300000       0.04000000      -0.03901200      -0.03314400      -0.00943500
O       -1.03900000      17.26700000       2.38800000       0.01094700      -0.00408100      -0.03709100
O        1.49200000      12.60500000       2.38200000      -0.03547800       0.01921700       0.00319100
O        2.74500000       9.82700000       4.46300000       0.02227600       0.05276200       0.01455400
O        0.33300000      14.37000000       4.37600000      -0.01963900       0.00409900      -0.06844800
O       -1.70300000      12.62400000       4.32700000       0.00148300       0.01821000       0.05302700
O        0.89100000      17.14200000       4.25200000      -0.00723400      -0.02757700      -0.01141600
O       -1.83800000      16.09600000       4.07200000      -0.00272800       0.00846600       0.00976600
O        0.87400000      11.62400000       4.32000000      -0.02481400      -0.00207700       0.01955100
H       -0.97600000       8.37500000       1.45500000      -0.01111000      -0.00636800       0.03370900
H        1.69100000      13.01000000       1.56600000       0.00904000       0.00796100      -0.01566200
H       -1.64700000       9.79000000       5.18000000      -0.02264700       0.00138800      -0.02541500
H        0.57400000      14.44400000       5.25100000       0.01712900      -0.00137100       0.04655000
H       -1.84300000      12.96000000       5.24800000       0.00232400      -0.00888000      -0.02978500
H        0.64800000       8.44700000       5.12800000      -0.00930500      -0.00239100       0.00879500
H        0.58000000      11.18300000       5.11100000       0.00256200      -0.00134000      -0.00121300
H       -2.24600000      15.51600000       4.68400000      -0.00554900      -0.00772900       0.01183000
Al      -3.37900000      11.37700000      10.28900000       0.03394800       0.00461400      -0.03237100
Al      -0.81900000      16.00400000      10.14700000       0.00213500      -0.04833000       0.00636500
Al      -0.80000000       9.82700000      10.32100000      -0.03388900      -0.00907000      -0.00648500
Al      -3.39000000      14.38800000      10.30000000       0.09087300       0.05169100      -0.03608700
Si       0.85900000       9.88400000       7.63500000      -0.00909500      -0.00633700       0.01113100
Si      -1.66400000      14.60300000       7.55400000       0.02042100      -0.04249700       0.00952700
Si      -1.69100000       8.36700000       7.67600000       0.05234700      -0.00385500       0.00369600
Si      -4.07800000      12.94100000       7.58600000       0.01938400       0.01450000      -0.00145200
O       -4.39800000      10.11200000       9.29900000       0.01969600       0.00596100      -0.03213700
O       -1.89800000      14.80000000       9.12900000      -0.03095800      -0.00820800       0.04887300
O       -3.77000000      12.87600000       9.18500000      -0.01362000       0.01981000       0.00467100
O       -1.28900000       8.31100000       9.23600000      -0.00094900       0.01540600       0.04990100
O       -3.95100000      11.44600000       6.99900000      -0.00589400      -0.01736800      -0.00113200
O       -1.28500000       6.91600000       7.02200000      -0.01738000      -0.02055700      -0.00353900
O       -3.06300000       8.99300000       7.22400000      -0.02087400      -0.00072000      -0.00474700
O       -0.36100000      13.63200000       7.22900000       0.00389300       0.00455100      -0.00383200
O       -2.87300000      13.83100000       6.81600000      -0.02110200      -0.00923900       0.00113700
O       -0.49600000       9.26000000       6.95200000       0.01545800       0.01369400      -0.00180500
O       -4.44400000      15.59100000       9.28900000      -0.00223600      -0.03795300       0.04861400
O       -1.77100000      11.10300000       9.28100000      -0.02567600       0.00010400       0.03294700
O       -0.18500000       8.34400000      11.31400000      -0.02443100      -0.00459500      -0.02344200
O       -2.85700000      12.89800000      11.27800000       0.01056600      -0.03126400       0.01402900
O       -4.97500000      11.13200000      11.24200000      -0.01351500       0.03908100       0.02649700
O       -2.31000000      15.69300000      11.22600000      -0.04957800      -0.02924100      -0.01810600
O       -4.90500000      14.57700000      11.35100000      -0.02553800      -0.00712300       0.01104900
O       -2.43300000      10.06300000      11.22600000      -0.00748900      -0.00392500       0.03191800
H       -4.23600000       6.71500000       8.34000000      -0.00111700      -0.00173200       0.01678300
H       -1.39800000      11.89100000       8.87400000       0.00253300      -0.01262900      -0.00082000
H       -4.95700000       8.43100000      12.16700000       0.00463600      -0.00409900       0.00528600
H       -2.55400000      12.73200000      12.17400000       0.00287100       0.01268900      -0.00173500
H       -5.37300000      11.88000000      11.74600000       0.01138600      -0.02843700      -0.01109900
H       -2.58000000       6.91900000      12.14300000      -0.01195700       0.01740300       0.03518600
H       -2.71300000       9.85700000      12.14400000       0.01236600      -0.00506000      -0.01991800
H       -5.29400000      14.03400000      12.03700000       0.01060000      -0.00012900      -0.00036700
Al       4.90500000       3.87600000       3.30900000       0.05536400       0.04357500      -0.00602500
Al       7.62600000       8.33700000       3.37000000      -0.02399900       0.02971600      -0.01773900
Al       7.57900000       2.37800000       3.21500000      -0.01044800       0.01526400       0.04157600
Al       4.95800000       6.89600000       3.40000000       0.05215100      -0.01895900      -0.05226400
Si       9.31100000       2.39600000       0.52700000       0.01086400       0.05372600       0.02477500
Si       6.76100000       6.93200000       0.71900000       0.00634800       0.00079100       0.01371900
Si       6.76900000       0.99600000       0.61600000      -0.02151200       0.00922100      -0.05477900
Si       4.16700000       5.47300000       0.71800000       0.01223500       0.00188600      -0.01216100
O        3.87800000       2.72700000       2.16800000       0.01675100       0.00440900       0.01133000
O        6.57300000       7.15000000       2.34500000      -0.04983200      -0.02136600      -0.01363600
O        4.38000000       5.42400000       2.33200000       0.00049500      -0.00874600      -0.01064200
O        7.04900000       0.91400000       2.15300000       0.00095700      -0.04373000       0.03426400
O        4.13600000       4.02600000      -0.07300000      -0.01069900       0.01232600       0.00700000
O        6.71800000      -0.45600000      -0.10900000       0.00346100       0.00092000       0.00070900
O        5.37700000       1.77400000       0.18100000       0.04057500      -0.02485200      -0.00458700
O        8.07000000       6.10900000       0.17000000      -0.01208700       0.00588600       0.00998100
O        5.47600000       6.25000000       0.02500000      -0.00826200      -0.00713200       0.00525000
O        7.98900000       1.82200000      -0.15300000      -0.01798500      -0.00416400      -0.00647600
O        3.99200000       8.20700000       2.50300000       0.01299800       0.01321700      -0.02882900
O        6.56800000       3.73000000       2.36900000      -0.03018100       0.00084100      -0.00523800
O        8.05400000       0.85400000       4.23500000      -0.00077800      -0.00905400      -0.01092600
O        5.50700000       5.40000000       4.34500000      -0.01540500      -0.08363400      -0.02310400
O        3.43400000       3.37700000       4.34000000      -0.03021900      -0.00672100      -0.00423200
O        6.06400000       8.01400000       4.36500000       0.01446600       0.04799400       0.05412000
O        3.33600000       7.04000000       4.28100000      -0.01871700       0.01137000       0.00853300
O        5.95300000       2.53100000       4.10300000      -0.00663000       0.01830300      -0.02510800
H        4.11700000      -0.79500000       1.46300000       0.00428300       0.00654600      -0.01142300
H        6.82900000       4.16100000       1.56200000      -0.00231700       0.00351900       0.00056000
H        3.34600000       0.78300000       5.21600000      -0.01382900       0.00251900      -0.04063500
H        6.17500000       5.36800000       5.02200000      -0.00268100       0.00058900       0.00058900
H        3.26900000       3.57700000       5.26100000      -0.00032600       0.00236600      -0.00614800
H        5.67300000      -0.49000000       4.87400000      -0.02188900       0.03587000       0.04602900
H        5.84800000       2.26300000       4.95800000      -0.01178700      -0.02378700       0.05606300
H        3.06000000       6.69900000       5.11600000       0.00091700      -0.00898000       0.00578500
Al       1.70100000       2.25100000      10.35000000      -0.01805200       0.01635300      -0.01782300
Al       4.46700000       6.82200000      10.33200000      -0.03294700       0.04446600      -0.01677400
Al       4.27200000       0.62100000      10.38100000      -0.00819100       0.05508100       0.01346900
Al       1.84000000       5.28500000      10.35300000       0.01739700       0.03065100       0.05027500
Si       5.98700000       0.95800000       7.72400000       0.01216700      -0.01039200      -0.00997800
Si       3.53800000       5.54400000       7.70100000      -0.00330200      -0.00889900      -0.02466900
Si       3.50000000      -0.75900000       7.74100000       0.02240900       0.01993400      -0.00833100
Si       1.14200000       3.81900000       7.62200000       0.02857800       0.03394100       0.03026800
O        0.57500000       1.12400000       9.29500000       0.02591100       0.00727000      -0.00901100
O        3.35500000       5.67200000       9.28000000       0.00769400       0.01029000       0.01801700
O        1.39500000       3.79000000       9.27900000      -0.01096000      -0.00642500      -0.03360500
O        3.79300000      -0.87000000       9.36900000      -0.02465100       0.00014100      -0.06053900
O        1.34900000       2.33200000       7.03200000      -0.00359600       0.01235100      -0.00780500
O        3.66000000      -2.20400000       7.01700000      -0.00792800      -0.00501600       0.00370400
O        2.06000000      -0.12300000       7.27500000       0.03295600      -0.01271600       0.01482100
O        4.77900000       4.62800000       7.27600000       0.02145100      -0.01778500       0.00000500
O        2.20100000       4.95900000       6.94800000      -0.01150100      -0.02685400       0.01041000
O        4.78000000       0.16300000       6.99300000      -0.04569200      -0.01641500       0.01574100
O        0.81500000       6.62000000       9.47000000       0.03739600      -0.02255600      -0.01740200
O        3.25000000       1.85200000       9.36200000       0.01516700       0.00051900      -0.01839200
O        4.82600000      -0.86900000      11.37800000      -0.00341400       0.00677800       0.00642900
O        2.31800000       3.72500000      11.35200000      -0.00366700       0.03298600      -0.00099400
O        0.15500000       1.99100000      11.39000000      -0.01078700      -0.01556700      -0.02275500
O        2.88400000       6.57700000      11.33500000      -0.02310500      -0.04590300      -0.03686700
O        0.17500000       5.49600000      11.22800000       0.01279200      -0.00972400       0.01505100
O        2.60800000       0.92300000      11.25300000       0.03779600      -0.02702000       0.01479700
H        0.98300000      -2.07200000       8.46600000       0.00576300       0.00659100      -0.00915000
H        3.52700000       2.26900000       8.54300000      -0.00214100      -0.00284700       0.00890200
H        0.45900000      -0.67500000      11.81700000      -0.01051300      -0.01044300      -0.00409200
H        2.63300000       3.69700000      12.26600000      -0.00163600       0.00037800      -0.01269600
H       -0.12900000       2.59800000      12.03900000      -0.00709900       0.00926100       0.01669400
H        2.44100000      -2.13300000      11.97300000      -0.00779500      -0.00192900       0.00805000
H        2.43100000       0.66900000      12.14700000      -0.00497500      -0.00579100       0.00823900
H       -0.19400000       5.00600000      11.94200000       0.00142500      -0.00745900       0.00899300
Al       5.07000000      12.82200000       3.26500000       0.01531500       0.02620300      -0.00057300
Al       7.62100000      17.49700000       3.18500000       0.03387300       0.02459200      -0.00773900
Al       7.62400000      11.36600000       3.45600000      -0.00085800      -0.02850600      -0.03032600
Al       5.14400000      15.81700000       3.30800000      -0.02641800       0.03821500      -0.03724900
Si       9.33900000      11.64700000       0.65600000       0.02268700      -0.05089600       0.03562100
Si       6.85000000      16.17100000       0.53600000      -0.06402800       0.01125800       0.01613500
Si       7.01100000       9.92400000       0.65400000      -0.02025200       0.04332800       0.01886800
Si       4.42100000      14.47600000       0.62000000       0.00313300       0.00685800      -0.04755300
O        3.99100000      11.63600000       2.29700000      -0.01589600      -0.01445900      -0.01131200
O        6.63400000      16.24400000       2.15900000      -0.03459800      -0.00066800       0.01634700
O        4.71400000      14.33700000       2.18500000      -0.01077400       0.01319600       0.00600100
O        7.31200000       9.89500000       2.28100000      -0.01890400      -0.02993700       0.00052000
O        4.43500000      12.99900000      -0.09900000      -0.00770600      -0.00758600       0.02031000
O        6.87800000       8.44600000       0.07600000       0.00639400      -0.00558100      -0.01367400
O        5.62500000      10.78100000       0.28800000       0.01940400      -0.02864400       0.00597500
O        8.15000000      15.41500000       0.24600000       0.09057000      -0.05419700      -0.00664400
O        5.63800000      15.36400000      -0.23800000      -0.03034200      -0.01436200       0.02670800
O        8.16500000      10.87600000      -0.10400000      -0.03037600      -0.03311500       0.00031000
O        4.07800000      17.04300000       2.34300000       0.00949700      -0.00929100       0.00406100
O        6.70600000      12.54800000       2.36500000      -0.01797300       0.00581800      -0.00154700
O        8.13000000       9.82400000       4.38400000       0.03689600       0.00260200       0.05031700
O        5.72400000      14.32100000       4.18600000       0.00762700      -0.00722800       0.02373900
O        3.55200000      12.59300000       4.33800000      -0.04872600      -0.00057900       0.00934000
O        6.13400000      17.11000000       4.24000000       0.00434200      -0.03038300      -0.02854000
O        3.48600000      16.02100000       4.26400000       0.05766000      -0.00032500      -0.04313800
O        5.91500000      11.54200000       4.30800000       0.06968100      -0.00040000      -0.03633600
H        4.29500000       8.85200000       1.88400000       0.00598500       0.00077500      -0.00583900
H        7.16700000      13.07200000       1.72900000      -0.00438000       0.00677800      -0.00619200
H        3.13400000       9.81500000       5.35200000      -0.00577000      -0.00064100      -0.01675500
H        6.15400000      14.34300000       5.01800000       0.00801700      -0.00395200       0.01418200
H        3.24700000      13.20100000       5.04900000       0.00879900      -0.01910100      -0.01928700
H        5.93100000       8.47200000       5.22800000      -0.00320100      -0.01650300      -0.02720000
H        5.46200000      11.10000000       4.98500000      -0.00478800      -0.01755700       0.02078000
H        3.40500000      15.76700000       5.15100000      -0.00782400      -0.00996800       0.02902400
Al       1.77400000      11.30700000      10.27400000       0.03626500       0.05110300       0.03373100
Al       4.39700000      15.75500000      10.38600000      -0.04171100      -0.02552300      -0.04802500
Al       4.40600000       9.83400000      10.30500000       0.02740600      -0.00758100       0.01552900
Al       1.70900000      14.29300000      10.23500000      -0.01869100       0.06882100      -0.01614900
Si       6.10200000       9.98300000       7.69000000       0.00411200       0.00852900      -0.00319500
Si       3.58900000      14.39400000       7.65700000       0.01345700       0.02679200       0.00590900
Si       3.68200000       8.38900000       7.68800000      -0.03093300       0.01086100      -0.00947100
Si       1.01500000      12.86900000       7.53400000      -0.00689900      -0.00809500       0.03173400
O        0.68300000      10.15300000       9.23400000       0.02468500      -0.00118900      -0.00481300
O        3.28800000      14.64700000       9.24700000       0.05770400       0.00840700       0.00453100
O        1.31500000      12.80400000       9.16700000      -0.01118700      -0.03793700      -0.00611000
O        3.99600000       8.32800000       9.25200000      -0.00373200      -0.03793200       0.01702200
O        1.00700000      11.34300000       6.94100000       0.00659700       0.02773200      -0.00765900
O        3.87200000       6.96200000       6.92300000      -0.00809000       0.00902000       0.01173600
O        2.19000000       9.02500000       7.44800000       0.01199200      -0.01670200      -0.01643000
O        4.95600000      13.69800000       7.07000000      -0.01575500      -0.00850300       0.01910000
O        2.31400000      13.68800000       6.98900000      -0.00568800      -0.00394400      -0.02518800
O        4.73100000       9.42100000       6.99900000       0.01113900       0.01233300      -0.01078600
O        0.82100000      15.69700000       9.29200000       0.01474700      -0.02592700       0.00120600
O        3.35100000      10.94800000       9.25800000      -0.05043000       0.01481900       0.04038600
O        4.97600000       8.36300000      11.33000000      -0.00641900      -0.01446400      -0.01698800
O        2.23900000      12.89200000      11.28200000      -0.00079000      -0.09983100      -0.00513100
O        0.18700000      11.12000000      11.30000000       0.02018600      -0.00541500      -0.01630700
O        2.80300000      15.38200000      11.30500000       0.01140300       0.02875400       0.01623900
O        0.09200000      14.68100000      11.11400000       0.02167600      -0.01620200      -0.00394500
O        2.90300000      10.16400000      11.31500000      -0.05846700       0.00249400       0.02077000
H        1.02600000       6.95900000       8.62300000       0.00464000       0.00999200      -0.01190700
H        3.48800000      11.32600000       8.43700000       0.01210800       0.01581400      -0.03795200
H        0.41600000       8.33300000      12.03500000       0.00701400       0.00091000       0.01177300
H        2.63400000      12.86500000      12.16400000      -0.00490300       0.00480800      -0.01389800
H       -0.00800000      11.71800000      12.02100000      -0.00589100      -0.00858400      -0.00164700
H        2.81800000       6.84100000      12.23700000      -0.00617100       0.00328300       0.00998100
H        2.71500000       9.66900000      12.13900000      -0.00125000       0.01621200      -0.02075300
H       -0.23300000      14.11600000      11.77900000      -0.01314500      -0.00816000       0.01745800
